<?xml version="1.0" encoding="UTF-8"?>

<!-- generated on 2024-10-01 21:50:00 by Eclipse SUMO sumo Version 1.20.0
<configuration xmlns:xsi="http://www.w3.org/2001/XMLSchema-instance" xsi:noNamespaceSchemaLocation="http://sumo.dlr.de/xsd/sumoConfiguration.xsd">

    <input>
        <net-file value="E:\ACER\Downloads\rl-environment-main\rl-environment-main\2024-10-01-20-21-00\2024-10-01-21-49-55\osm.net.xml.gz"/>
        <route-files value="E:\ACER\Downloads\rl-environment-main\rl-environment-main\2024-10-01-20-21-00\2024-10-01-21-49-55\trips.trips.xml"/>
        <additional-files value="E:\ACER\Downloads\rl-environment-main\rl-environment-main\2024-10-01-20-21-00\2024-10-01-21-49-55\osm_stops.add.xml"/>
    </input>

    <output>
        <vehroute-output value="E:\ACER\Downloads\rl-environment-main\rl-environment-main\2024-10-01-20-21-00\2024-10-01-21-49-55\vehroutes.xml"/>
        <stop-output value="E:\ACER\Downloads\rl-environment-main\rl-environment-main\2024-10-01-20-21-00\2024-10-01-21-49-55\stopinfos.xml"/>
    </output>

    <time>
        <begin value="0.0"/>
    </time>

    <processing>
        <ignore-route-errors value="true"/>
    </processing>

    <routing>
        <device.rerouting.adaptation-interval value="0"/>
    </routing>

    <report>
        <aggregate-warnings value="5"/>
        <error-log value="E:\ACER\Downloads\rl-environment-main\rl-environment-main\2024-10-01-20-21-00\2024-10-01-21-49-55\trips.trips.xml.errorlog"/>
        <no-step-log value="true"/>
    </report>

</configuration>
-->

<routes xmlns:xsi="http://www.w3.org/2001/XMLSchema-instance" xsi:noNamespaceSchemaLocation="http://sumo.dlr.de/xsd/routes_file.xsd">
    <vehicle id="3_bus_11:0" type="pt_bus" depart="52.00" departLane="0" arrival="223.00">
        <route edges="591355894 193289327 194607856 1132407062 231882049"/>
        <stop busStop="5645760472" duration="30.00"/>
    </vehicle>

    <vehicle id="0_bus_Chakrapath_Parikrama:0" type="pt_bus" depart="15.00" departLane="0" arrival="362.00">
        <route edges="1118309782 1118309782 416294069#1"/>
        <stop busStop="31228768" duration="30.00"/>
    </vehicle>

    <vehicle id="2_bus_7:0" type="pt_bus" depart="17.00" departLane="0" arrival="403.00">
        <route edges="194607856 1132407062 231882049 1118309782"/>
        <stop busStop="2377002167" duration="30.00"/>
    </vehicle>

    <vehicle id="1_bus_Nepal_Yatayat:0" type="pt_bus" depart="346.00" departLane="0" arrival="431.00">
        <route edges="1118309782 193289326 591357319"/>
        <stop busStop="31228768" duration="30.00"/>
    </vehicle>

    <vehicle id="7_bus_Gothatar-Purano_Buspark:0" type="pt_bus" depart="418.00" departLane="0" arrival="449.00">
        <route edges="1118309782"/>
        <stop busStop="31228768" duration="30.00"/>
    </vehicle>

    <vehicle id="6_bus_Changu-Ratnapark:0" type="pt_bus" depart="382.00" departLane="0" arrival="466.00">
        <route edges="1118309782 193289326 591357319"/>
        <stop busStop="31228768" duration="30.00"/>
    </vehicle>

    <vehicle id="8_bus_kalanki-Balkumari:0" type="pt_bus" depart="449.00" departLane="0" arrival="480.00">
        <route edges="1118309782"/>
        <stop busStop="31228768" duration="30.00"/>
    </vehicle>

    <vehicle id="4_bus_Chyamasingh_to_Ratnapark:0" type="pt_bus" depart="131.00" departLane="0" arrival="524.00">
        <route edges="226834863#0 226834863#0-AddedOffRampEdge 226834863#1 1118309782 193289326 591357319"/>
    </vehicle>

    <vehicle id="9_bus_Kalanki-Pepsacola:0" type="pt_bus" depart="480.00" departLane="0" arrival="593.00">
        <route edges="1118309782 1132407060 194607856 1132407062 231882049"/>
        <stop busStop="31228768" duration="30.00"/>
        <stop busStop="2377002167" duration="30.00"/>
    </vehicle>

    <vehicle id="12_bus_Nepal_Yatayat:1" type="pt_bus" depart="631.00" departLane="0" arrival="662.00">
        <route edges="1118309782"/>
        <stop busStop="31228768" duration="30.00"/>
    </vehicle>

    <vehicle id="10_bus_40:0" type="pt_bus" depart="516.00" departLane="0" arrival="672.00">
        <route edges="1118309782 1132407060 194607856 1132407062 231882049"/>
        <stop busStop="31228768" duration="30.00"/>
        <stop busStop="2377002167" duration="30.00"/>
    </vehicle>

    <vehicle id="11_bus_lagankhel_-_Naya_Buspark(Ringroad):0" type="pt_bus" depart="595.00" departLane="0" arrival="673.00">
        <route edges="1118309782 193289326"/>
        <stop busStop="31228768" duration="30.00"/>
    </vehicle>

    <vehicle id="5_bus_12:0" type="pt_bus" depart="133.00" departLane="0" arrival="865.00">
        <route edges="591355894 193289327 194607856 1132407062 231882049 193289327 194607856 1132407062 231882049"/>
        <stop busStop="2377002167" duration="30.00"/>
        <stop busStop="5645760472" duration="30.00"/>
    </vehicle>

</routes>
